30
	Energy:      83.9149486
C         -2.66500        2.11876        0.73714
C         -2.55689        0.77019        0.36871
C         -1.49572        0.35317       -0.44394
C         -1.72309        3.05051        0.29535
C         -0.66513        2.65083       -0.52945
C         -0.56207        1.29816       -0.89579
C         -3.42521        0.51217        1.11645
C         -1.31525       -1.01637       -0.82159
H         -3.48275        2.44962        1.37685
H         -1.82214        4.08951        0.60632
H          0.26763        0.97911       -1.52819
C          0.36833        3.64798       -0.99966
C          1.68216        3.39120       -0.39028
H          0.04629        4.66883       -0.76127
H          0.43891        3.59654       -2.09283
C          2.75079        3.16831        0.11100
C          4.06420        2.91872        0.73106
C          5.13781        3.85038        0.15646
H          4.34392        1.87314        0.55000
H          3.98382        3.04642        1.81772
N          6.47422        3.48024        0.65878
H          6.78913        2.62714        0.19912
H          7.13034        4.21412        0.37239
C          4.86786        5.30578        0.53567
H          5.13318        3.80003       -0.93937
O          5.65443        6.22040        0.29060
H          3.90075        5.51987        1.02129
O         -4.51099        0.19407        1.57003
H         -2.66612       -0.17423        0.42063
N         -1.57633       -1.74998       -0.45024
